 Gaussian 09, Revision A.02,
 Gaussian 09:  EM64L-G09RevA.02 11-Jun-2009

 ----------------------------------------
 #p opt b3lyp/6-311g(d) geom=connectivity
 ----------------------------------------

 -----------------------
 C2H2 Ethylene; Geom Opt
 -----------------------
 Symbolic Z-matrix:
 Charge =  1 Multiplicity = 2

 SCF Done:  E(UB3LYP) =  -78.2226545518     A.U. after   10 cycles
 SCF Done:  E(UB3LYP) =  -78.2274480577     A.U. after    8 cycles
 SCF Done:  E(UB3LYP) =  -78.2274558259     A.U. after    6 cycles
 Optimization completed.
    -- Stationary point found.

                         Standard orientation:
 ---------------------------------------------------------------------
 Center     Atomic      Atomic             Coordinates (Angstroms)
 Number     Number       Type             X           Y           Z
 ---------------------------------------------------------------------
      1          6           0        0.000000    0.000000    0.708908
      2          6           0        0.000000    0.000000   -0.708908
      3          1           0        0.000000    0.933074    1.266763
      4          1           0        0.000000   -0.933074    1.266763
      5          1           0        0.000000   -0.933074   -1.266763
      6          1           0        0.000000    0.933074   -1.266763
 ---------------------------------------------------------------------

 The electronic state is 2-B3U.
 Alpha  occ. eigenvalues --  -10.53262 -10.53216  -1.09179  -0.89861  -0.77632
 Alpha  occ. eigenvalues --   -0.73417  -0.66949  -0.61593
 Alpha virt. eigenvalues --   -0.34675  -0.16247  -0.13649  -0.13297  -0.05280
 Alpha virt. eigenvalues --    0.00381   0.04709   0.06039   0.10463   0.11612
 Alpha virt. eigenvalues --    0.12258   0.20966   0.32696   0.32793   0.37854

  Beta  occ. eigenvalues --  -10.52512 -10.52472  -1.05789  -0.88226  -0.76927
  Beta  occ. eigenvalues --   -0.72437  -0.66554
  Beta virt. eigenvalues --   -0.48023  -0.28090  -0.15880  -0.13425  -0.12510
  Beta virt. eigenvalues --   -0.05101   0.01185   0.04871   0.06432   0.12037
  Beta virt. eigenvalues --    0.13195   0.15580   0.24015   0.33129   0.33257

 Mulliken atomic charges:
              1
     1  C   -0.193597
     2  C   -0.193597
     3  H    0.346799
     4  H    0.346799
     5  H    0.346799
     6  H    0.346799
 Sum of Mulliken atomic charges =   1.00000

 Dipole moment (field-independent basis, Debye):
    X=              0.0000    Y=              0.0000    Z=              0.0000  Tot=              0.0000
 Quadrupole moment (field-independent basis, Debye-Ang):
   XX=            -11.5281   YY=             -8.4894   ZZ=             -5.5893
   XY=              0.0000   XZ=              0.0000   YZ=              0.0000

 Normal termination of Gaussian 09 at Wed Apr 15 21:54:30 2015.
