 Gaussian 09, Revision A.02,
 Gaussian 09:  EM64L-G09RevA.02 11-Jun-2009

 ----------------------------------------
 #p opt b3lyp/6-311g(d) geom=connectivity
 ----------------------------------------

 -----------------------
 C2H2 Ethylene; Geom Opt
 -----------------------
 Symbolic Z-matrix:
 Charge =  0 Multiplicity = 1

 SCF Done:  E(RB3LYP) =  -78.6050612827     A.U. after    9 cycles
 SCF Done:  E(RB3LYP) =  -78.6068155467     A.U. after    9 cycles
 SCF Done:  E(RB3LYP) =  -78.6069532223     A.U. after    8 cycles
 SCF Done:  E(RB3LYP) =  -78.6069570148     A.U. after    6 cycles
 Optimization completed.
    -- Stationary point found.

                         Standard orientation:
 ---------------------------------------------------------------------
 Center     Atomic      Atomic             Coordinates (Angstroms)
 Number     Number       Type             X           Y           Z
 ---------------------------------------------------------------------
      1          6           0        0.000000    0.000000    0.663493
      2          6           0        0.000000    0.000000   -0.663493
      3          1           0        0.000000    0.922503    1.236446
      4          1           0        0.000000   -0.922503    1.236446
      5          1           0        0.000000   -0.922503   -1.236446
      6          1           0        0.000000    0.922503   -1.236446
 ---------------------------------------------------------------------

 The electronic state is 1-AG.
 Alpha  occ. eigenvalues --  -10.16930 -10.16845  -0.76421  -0.58338  -0.47327
 Alpha  occ. eigenvalues --   -0.42611  -0.35960  -0.27672
 Alpha virt. eigenvalues --    0.00559   0.06166   0.08579   0.09012   0.15907
 Alpha virt. eigenvalues --    0.30003   0.30857   0.31494   0.38416   0.40569
 Alpha virt. eigenvalues --    0.41302   0.50441   0.58466   0.61528   0.68745

 Mulliken atomic charges:
              1
     1  C   -0.405967
     2  C   -0.405967
     3  H    0.202983
     4  H    0.202983
     5  H    0.202983
     6  H    0.202983
 Sum of Mulliken atomic charges =   0.00000

 Dipole moment (field-independent basis, Debye):
    X=              0.0000    Y=              0.0000    Z=              0.0000  Tot=              0.0000
 Quadrupole moment (field-independent basis, Debye-Ang):
   XX=            -15.6195   YY=            -12.2808   ZZ=            -12.2478
   XY=              0.0000   XZ=              0.0000   YZ=              0.0000

 Normal termination of Gaussian 09 at Wed Apr 15 22:04:21 2015.
